diglyme - created by mBuild

23 atoms
22 bonds
39 angles
84 dihedrals
0 impropers

4 atom types
5 bond types
8 angle types
27 dihedral types

0.000000 30 xlo xhi
0.000000 30 ylo yhi
0.000000 30 zlo zhi

Masses

3	12.010780	# pfpe_181
2	15.999430	# pfpe_180
1	12.010780	# pfpe_139
4	18.998403	# pfpe_965

Pair Coeffs # lj 
#	epsilon (kcal/mol)		sigma (Angstrom)
3	0.06600		3.50000		# pfpe_181
2	0.15200		2.79000		# pfpe_180
1	0.06600		3.50000		# pfpe_139
4	0.05300		2.95000		# pfpe_965

Bond Coeffs # harmonic
#	k(kcal/mol/angstrom^2)		req(angstrom)
1	367.0		1.332		# pfpe_139	pfpe_965
2	268.0		1.529		# pfpe_139	pfpe_139
3	320.0		1.36		# pfpe_180	pfpe_181
4	367.0		1.332		# pfpe_181	pfpe_965
5	320.0		1.36		# pfpe_139	pfpe_180

Angle Coeffs # harmonic
#	k(kcal/mol/rad^2)		theteq(deg)
1	77.0		109.10000	# pfpe_965	pfpe_181	pfpe_965
2	50.0		110.70000	# pfpe_180	pfpe_139	pfpe_965
3	77.0		109.10000	# pfpe_965	pfpe_139	pfpe_965
4	60.0		121.40000	# pfpe_139	pfpe_180	pfpe_181
5	50.0		107.80000	# pfpe_139	pfpe_139	pfpe_180
6	50.0		109.50000	# pfpe_139	pfpe_139	pfpe_965
7	50.0		110.70000	# pfpe_180	pfpe_181	pfpe_965
8	60.0		121.40000	# pfpe_139	pfpe_180	pfpe_139

Dihedral Coeffs # charmm
#k, n, phi, weight
1	4.24100	3	-93	0.33330	# pfpe_181	pfpe_180	pfpe_139	pfpe_139
2	0.89600	3	0	1.00000	# pfpe_180	pfpe_139	pfpe_139	pfpe_965
3	0.86900	3	62	0.33330	# pfpe_181	pfpe_180	pfpe_139	pfpe_965
4	-1.45300	0	0	0.33330	# pfpe_181	pfpe_180	pfpe_139	pfpe_965
5	22.09300	1	-14	0.33330	# pfpe_139	pfpe_139	pfpe_180	pfpe_181
6	-1.45300	0	0	0.33330	# pfpe_139	pfpe_180	pfpe_139	pfpe_965
7	0.86900	3	62	0.33330	# pfpe_139	pfpe_180	pfpe_139	pfpe_965
8	4.24100	3	-93	0.33330	# pfpe_139	pfpe_180	pfpe_139	pfpe_139
9	1.24200	0	0	0.33330	# pfpe_180	pfpe_139	pfpe_139	pfpe_180
10	-1.45300	0	0	0.33330	# pfpe_139	pfpe_180	pfpe_181	pfpe_965
11	0.86900	3	62	0.33330	# pfpe_139	pfpe_180	pfpe_181	pfpe_965
12	-4.87400	4	-85	0.33330	# pfpe_139	pfpe_139	pfpe_180	pfpe_139
13	-4.87400	4	-85	0.33330	# pfpe_139	pfpe_180	pfpe_139	pfpe_139
14	3.01800	4	83	0.33330	# pfpe_139	pfpe_180	pfpe_139	pfpe_965
15	22.09300	1	-14	0.33330	# pfpe_181	pfpe_180	pfpe_139	pfpe_139
16	0.12500	3	0	0.50000	# pfpe_965	pfpe_139	pfpe_139	pfpe_965
17	22.09300	1	-14	0.33330	# pfpe_139	pfpe_180	pfpe_139	pfpe_139
18	22.09300	1	-14	0.33330	# pfpe_139	pfpe_139	pfpe_180	pfpe_139
19	-4.87400	4	-85	0.33330	# pfpe_139	pfpe_139	pfpe_180	pfpe_181
20	-4.87400	4	-85	0.33330	# pfpe_181	pfpe_180	pfpe_139	pfpe_139
21	4.24100	3	-93	0.33330	# pfpe_139	pfpe_139	pfpe_180	pfpe_181
22	3.01800	4	83	0.33330	# pfpe_181	pfpe_180	pfpe_139	pfpe_965
23	-0.36200	3	0	0.33330	# pfpe_180	pfpe_139	pfpe_139	pfpe_180
24	-1.25000	1	0	0.50000	# pfpe_965	pfpe_139	pfpe_139	pfpe_965
25	-0.96000	2	0	0.33330	# pfpe_180	pfpe_139	pfpe_139	pfpe_180
26	4.24100	3	-93	0.33330	# pfpe_139	pfpe_139	pfpe_180	pfpe_139
27	3.01800	4	83	0.33330	# pfpe_139	pfpe_180	pfpe_181	pfpe_965

Atoms

1	0	3	0.560000	-7.742800	-0.203600	-0.060400
2	0	2	-0.400000	-6.540800	0.381700	0.180800
3	0	1	0.440000	-5.389500	-0.339300	0.174500
4	0	1	0.440000	-4.230100	0.655100	0.040600
5	0	2	-0.400000	-3.076600	-0.067200	0.033600
6	0	1	0.440000	-1.873600	0.515300	0.290600
7	0	1	0.440000	-0.787700	-0.430700	-0.236000
8	0	2	-0.400000	0.412900	0.150400	0.021200
9	0	3	0.560000	1.565500	-0.568300	-0.001700
10	0	4	-0.120000	-7.921300	-0.403200	-1.339600
11	0	4	-0.120000	-8.658700	0.612000	0.372500
12	0	4	-0.120000	-7.855900	-1.351900	0.557100
13	0	4	-0.120000	-5.355100	-1.193300	-0.830300
14	0	4	-0.120000	-5.250500	-1.016700	1.296300
15	0	4	-0.120000	-4.262400	1.508200	1.045000
16	0	4	-0.120000	-4.367100	1.330900	-1.081800
17	0	4	-0.120000	-1.704300	0.690400	1.585100
18	0	4	-0.120000	-1.764600	1.686500	-0.304200
19	0	4	-0.120000	-0.959200	-0.607300	-1.530600
20	0	4	-0.120000	-0.899000	-1.602800	0.358800
21	0	4	-0.120000	1.603800	-1.391800	-1.018000
22	0	4	-0.120000	1.710500	-1.261200	1.097000
23	0	4	-0.120000	2.544500	0.282400	-0.097700

Bonds

1	4	1	12
2	4	1	11
3	4	1	10
4	3	1	2
5	1	3	13
6	1	3	14
7	5	3	2
8	2	3	4
9	1	4	16
10	1	4	15
11	5	5	4
12	5	5	6
13	1	6	18
14	1	6	17
15	2	6	7
16	5	7	8
17	1	7	19
18	1	7	20
19	3	8	9
20	4	9	22
21	4	9	23
22	4	9	21

Angles

1	4	1	2	3
2	7	2	1	10
3	7	2	1	11
4	7	2	1	12
5	5	2	3	4
6	2	2	3	13
7	2	2	3	14
8	5	3	4	5
9	6	3	4	15
10	6	3	4	16
11	6	4	3	13
12	6	4	3	14
13	8	4	5	6
14	2	5	4	15
15	2	5	4	16
16	5	5	6	7
17	2	5	6	17
18	2	5	6	18
19	5	6	7	8
20	6	6	7	19
21	6	6	7	20
22	6	7	6	17
23	6	7	6	18
24	4	7	8	9
25	2	8	7	19
26	2	8	7	20
27	7	8	9	21
28	7	8	9	22
29	7	8	9	23
30	1	10	1	11
31	1	10	1	12
32	1	11	1	12
33	3	13	3	14
34	3	15	4	16
35	3	17	6	18
36	3	19	7	20
37	1	21	9	22
38	1	21	9	23
39	1	22	9	23

Dihedrals

1	15	1	2	3	4
2	1	1	2	3	4
3	20	1	2	3	4
4	4	1	2	3	13
5	3	1	2	3	13
6	22	1	2	3	13
7	4	1	2	3	14
8	3	1	2	3	14
9	22	1	2	3	14
10	9	2	3	4	5
11	25	2	3	4	5
12	23	2	3	4	5
13	2	2	3	4	15
14	2	2	3	4	16
15	10	3	2	1	10
16	11	3	2	1	10
17	27	3	2	1	10
18	10	3	2	1	11
19	11	3	2	1	11
20	27	3	2	1	11
21	10	3	2	1	12
22	11	3	2	1	12
23	27	3	2	1	12
24	18	3	4	5	6
25	26	3	4	5	6
26	12	3	4	5	6
27	17	4	5	6	7
28	8	4	5	6	7
29	13	4	5	6	7
30	6	4	5	6	17
31	7	4	5	6	17
32	14	4	5	6	17
33	6	4	5	6	18
34	7	4	5	6	18
35	14	4	5	6	18
36	2	5	4	3	13
37	2	5	4	3	14
38	9	5	6	7	8
39	25	5	6	7	8
40	23	5	6	7	8
41	2	5	6	7	19
42	2	5	6	7	20
43	6	6	5	4	15
44	7	6	5	4	15
45	14	6	5	4	15
46	6	6	5	4	16
47	7	6	5	4	16
48	14	6	5	4	16
49	5	6	7	8	9
50	21	6	7	8	9
51	19	6	7	8	9
52	10	7	8	9	21
53	11	7	8	9	21
54	27	7	8	9	21
55	10	7	8	9	22
56	11	7	8	9	22
57	27	7	8	9	22
58	10	7	8	9	23
59	11	7	8	9	23
60	27	7	8	9	23
61	2	8	7	6	17
62	2	8	7	6	18
63	4	9	8	7	19
64	3	9	8	7	19
65	22	9	8	7	19
66	4	9	8	7	20
67	3	9	8	7	20
68	22	9	8	7	20
69	24	13	3	4	15
70	16	13	3	4	15
71	24	13	3	4	16
72	16	13	3	4	16
73	24	14	3	4	15
74	16	14	3	4	15
75	24	14	3	4	16
76	16	14	3	4	16
77	24	17	6	7	19
78	16	17	6	7	19
79	24	17	6	7	20
80	16	17	6	7	20
81	24	18	6	7	19
82	16	18	6	7	19
83	24	18	6	7	20
84	16	18	6	7	20
